#LAMMPS data file for Polymer Chain

13200 atoms
13200 ellipsoids
11000 bonds
10000 angles

3 atom types
1 bond types
1 angle types

-400.0 400.0 xlo xhi
-50.0 50.0 ylo yhi
-50.0 50.0 zlo zhi

Masses

1 0.001176
2 0.001176
3 0.90498

Atoms

1 1 -377.65 -21.0 -21.0 1 1 0.00028
2 1 -375.65 -21.0 -21.0 1 1 0.00028
3 1 -373.65 -21.0 -21.0 1 1 0.00028
4 1 -371.65 -21.0 -21.0 1 1 0.00028
5 1 -369.65 -21.0 -21.0 1 1 0.00028
6 1 -367.65 -21.0 -21.0 1 1 0.00028
7 2 -365.65 -21.0 -21.0 1 1 0.00028
8 2 -363.65 -21.0 -21.0 1 1 0.00028
9 2 -361.65 -21.0 -21.0 1 1 0.00028
10 2 -359.65 -21.0 -21.0 1 1 0.00028
11 2 -357.65 -21.0 -21.0 1 1 0.00028
12 2 -355.65 -21.0 -21.0 1 1 0.00028
13 1 -350.34999999999997 -21.0 -21.0 2 1 0.00028
14 1 -348.34999999999997 -21.0 -21.0 2 1 0.00028
15 1 -346.34999999999997 -21.0 -21.0 2 1 0.00028
16 1 -344.34999999999997 -21.0 -21.0 2 1 0.00028
17 1 -342.34999999999997 -21.0 -21.0 2 1 0.00028
18 1 -340.34999999999997 -21.0 -21.0 2 1 0.00028
19 2 -338.34999999999997 -21.0 -21.0 2 1 0.00028
20 2 -336.34999999999997 -21.0 -21.0 2 1 0.00028
21 2 -334.34999999999997 -21.0 -21.0 2 1 0.00028
22 2 -332.34999999999997 -21.0 -21.0 2 1 0.00028
23 2 -330.34999999999997 -21.0 -21.0 2 1 0.00028
24 2 -328.34999999999997 -21.0 -21.0 2 1 0.00028
25 1 -323.04999999999995 -21.0 -21.0 3 1 0.00028
26 1 -321.04999999999995 -21.0 -21.0 3 1 0.00028
27 1 -319.04999999999995 -21.0 -21.0 3 1 0.00028
28 1 -317.04999999999995 -21.0 -21.0 3 1 0.00028
29 1 -315.04999999999995 -21.0 -21.0 3 1 0.00028
30 1 -313.04999999999995 -21.0 -21.0 3 1 0.00028
31 2 -311.04999999999995 -21.0 -21.0 3 1 0.00028
32 2 -309.04999999999995 -21.0 -21.0 3 1 0.00028
33 2 -307.04999999999995 -21.0 -21.0 3 1 0.00028
34 2 -305.04999999999995 -21.0 -21.0 3 1 0.00028
35 2 -303.04999999999995 -21.0 -21.0 3 1 0.00028
36 2 -301.04999999999995 -21.0 -21.0 3 1 0.00028
37 1 -295.75 -21.0 -21.0 4 1 0.00028
38 1 -293.75 -21.0 -21.0 4 1 0.00028
39 1 -291.75 -21.0 -21.0 4 1 0.00028
40 1 -289.75 -21.0 -21.0 4 1 0.00028
41 1 -287.75 -21.0 -21.0 4 1 0.00028
42 1 -285.75 -21.0 -21.0 4 1 0.00028
43 2 -283.75 -21.0 -21.0 4 1 0.00028
44 2 -281.75 -21.0 -21.0 4 1 0.00028
45 2 -279.75 -21.0 -21.0 4 1 0.00028
46 2 -277.75 -21.0 -21.0 4 1 0.00028
47 2 -275.75 -21.0 -21.0 4 1 0.00028
48 2 -273.75 -21.0 -21.0 4 1 0.00028
49 1 -268.45 -21.0 -21.0 5 1 0.00028
50 1 -266.45 -21.0 -21.0 5 1 0.00028
51 1 -264.45 -21.0 -21.0 5 1 0.00028
52 1 -262.45 -21.0 -21.0 5 1 0.00028
53 1 -260.45 -21.0 -21.0 5 1 0.00028
54 1 -258.45 -21.0 -21.0 5 1 0.00028
55 2 -256.45 -21.0 -21.0 5 1 0.00028
56 2 -254.45 -21.0 -21.0 5 1 0.00028
57 2 -252.45 -21.0 -21.0 5 1 0.00028
58 2 -250.45 -21.0 -21.0 5 1 0.00028
59 2 -248.45 -21.0 -21.0 5 1 0.00028
60 2 -246.45 -21.0 -21.0 5 1 0.00028
61 1 -241.14999999999998 -21.0 -21.0 6 1 0.00028
62 1 -239.14999999999998 -21.0 -21.0 6 1 0.00028
63 1 -237.14999999999998 -21.0 -21.0 6 1 0.00028
64 1 -235.14999999999998 -21.0 -21.0 6 1 0.00028
65 1 -233.14999999999998 -21.0 -21.0 6 1 0.00028
66 1 -231.14999999999998 -21.0 -21.0 6 1 0.00028
67 2 -229.14999999999998 -21.0 -21.0 6 1 0.00028
68 2 -227.14999999999998 -21.0 -21.0 6 1 0.00028
69 2 -225.14999999999998 -21.0 -21.0 6 1 0.00028
70 2 -223.14999999999998 -21.0 -21.0 6 1 0.00028
71 2 -221.14999999999998 -21.0 -21.0 6 1 0.00028
72 2 -219.14999999999998 -21.0 -21.0 6 1 0.00028
73 1 -213.85 -21.0 -21.0 7 1 0.00028
74 1 -211.85 -21.0 -21.0 7 1 0.00028
75 1 -209.85 -21.0 -21.0 7 1 0.00028
76 1 -207.85 -21.0 -21.0 7 1 0.00028
77 1 -205.85 -21.0 -21.0 7 1 0.00028
78 1 -203.85 -21.0 -21.0 7 1 0.00028
79 2 -201.85 -21.0 -21.0 7 1 0.00028
80 2 -199.85 -21.0 -21.0 7 1 0.00028
81 2 -197.85 -21.0 -21.0 7 1 0.00028
82 2 -195.85 -21.0 -21.0 7 1 0.00028
83 2 -193.85 -21.0 -21.0 7 1 0.00028
84 2 -191.85 -21.0 -21.0 7 1 0.00028
85 1 -186.54999999999998 -21.0 -21.0 8 1 0.00028
86 1 -184.54999999999998 -21.0 -21.0 8 1 0.00028
87 1 -182.54999999999998 -21.0 -21.0 8 1 0.00028
88 1 -180.54999999999998 -21.0 -21.0 8 1 0.00028
89 1 -178.54999999999998 -21.0 -21.0 8 1 0.00028
90 1 -176.54999999999998 -21.0 -21.0 8 1 0.00028
91 2 -174.54999999999998 -21.0 -21.0 8 1 0.00028
92 2 -172.54999999999998 -21.0 -21.0 8 1 0.00028
93 2 -170.54999999999998 -21.0 -21.0 8 1 0.00028
94 2 -168.54999999999998 -21.0 -21.0 8 1 0.00028
95 2 -166.54999999999998 -21.0 -21.0 8 1 0.00028
96 2 -164.54999999999998 -21.0 -21.0 8 1 0.00028
97 1 -159.25 -21.0 -21.0 9 1 0.00028
98 1 -157.25 -21.0 -21.0 9 1 0.00028
99 1 -155.25 -21.0 -21.0 9 1 0.00028
100 1 -153.25 -21.0 -21.0 9 1 0.00028
101 1 -151.25 -21.0 -21.0 9 1 0.00028
102 1 -149.25 -21.0 -21.0 9 1 0.00028
103 2 -147.25 -21.0 -21.0 9 1 0.00028
104 2 -145.25 -21.0 -21.0 9 1 0.00028
105 2 -143.25 -21.0 -21.0 9 1 0.00028
106 2 -141.25 -21.0 -21.0 9 1 0.00028
107 2 -139.25 -21.0 -21.0 9 1 0.00028
108 2 -137.25 -21.0 -21.0 9 1 0.00028
109 1 -131.95 -21.0 -21.0 10 1 0.00028
110 1 -129.95 -21.0 -21.0 10 1 0.00028
111 1 -127.94999999999999 -21.0 -21.0 10 1 0.00028
112 1 -125.94999999999999 -21.0 -21.0 10 1 0.00028
113 1 -123.94999999999999 -21.0 -21.0 10 1 0.00028
114 1 -121.94999999999999 -21.0 -21.0 10 1 0.00028
115 2 -119.94999999999999 -21.0 -21.0 10 1 0.00028
116 2 -117.94999999999999 -21.0 -21.0 10 1 0.00028
117 2 -115.94999999999999 -21.0 -21.0 10 1 0.00028
118 2 -113.94999999999999 -21.0 -21.0 10 1 0.00028
119 2 -111.94999999999999 -21.0 -21.0 10 1 0.00028
120 2 -109.94999999999999 -21.0 -21.0 10 1 0.00028
121 1 -104.64999999999998 -21.0 -21.0 11 1 0.00028
122 1 -102.64999999999998 -21.0 -21.0 11 1 0.00028
123 1 -100.64999999999998 -21.0 -21.0 11 1 0.00028
124 1 -98.64999999999998 -21.0 -21.0 11 1 0.00028
125 1 -96.64999999999998 -21.0 -21.0 11 1 0.00028
126 1 -94.64999999999998 -21.0 -21.0 11 1 0.00028
127 2 -92.64999999999998 -21.0 -21.0 11 1 0.00028
128 2 -90.64999999999998 -21.0 -21.0 11 1 0.00028
129 2 -88.64999999999998 -21.0 -21.0 11 1 0.00028
130 2 -86.64999999999998 -21.0 -21.0 11 1 0.00028
131 2 -84.64999999999998 -21.0 -21.0 11 1 0.00028
132 2 -82.64999999999998 -21.0 -21.0 11 1 0.00028
133 1 -77.34999999999997 -21.0 -21.0 12 1 0.00028
134 1 -75.34999999999997 -21.0 -21.0 12 1 0.00028
135 1 -73.34999999999997 -21.0 -21.0 12 1 0.00028
136 1 -71.34999999999997 -21.0 -21.0 12 1 0.00028
137 1 -69.34999999999997 -21.0 -21.0 12 1 0.00028
138 1 -67.34999999999997 -21.0 -21.0 12 1 0.00028
139 2 -65.34999999999997 -21.0 -21.0 12 1 0.00028
140 2 -63.349999999999966 -21.0 -21.0 12 1 0.00028
141 2 -61.349999999999966 -21.0 -21.0 12 1 0.00028
142 2 -59.349999999999966 -21.0 -21.0 12 1 0.00028
143 2 -57.349999999999966 -21.0 -21.0 12 1 0.00028
144 2 -55.349999999999966 -21.0 -21.0 12 1 0.00028
145 1 -50.05000000000001 -21.0 -21.0 13 1 0.00028
146 1 -48.05000000000001 -21.0 -21.0 13 1 0.00028
147 1 -46.05000000000001 -21.0 -21.0 13 1 0.00028
148 1 -44.05000000000001 -21.0 -21.0 13 1 0.00028
149 1 -42.05000000000001 -21.0 -21.0 13 1 0.00028
150 1 -40.05000000000001 -21.0 -21.0 13 1 0.00028
151 2 -38.05000000000001 -21.0 -21.0 13 1 0.00028
152 2 -36.05000000000001 -21.0 -21.0 13 1 0.00028
153 2 -34.05000000000001 -21.0 -21.0 13 1 0.00028
154 2 -32.05000000000001 -21.0 -21.0 13 1 0.00028
155 2 -30.05000000000001 -21.0 -21.0 13 1 0.00028
156 2 -28.05000000000001 -21.0 -21.0 13 1 0.00028
157 1 -22.75 -21.0 -21.0 14 1 0.00028
158 1 -20.75 -21.0 -21.0 14 1 0.00028
159 1 -18.75 -21.0 -21.0 14 1 0.00028
160 1 -16.75 -21.0 -21.0 14 1 0.00028
161 1 -14.75 -21.0 -21.0 14 1 0.00028
162 1 -12.75 -21.0 -21.0 14 1 0.00028
163 2 -10.75 -21.0 -21.0 14 1 0.00028
164 2 -8.75 -21.0 -21.0 14 1 0.00028
165 2 -6.75 -21.0 -21.0 14 1 0.00028
166 2 -4.75 -21.0 -21.0 14 1 0.00028
167 2 -2.75 -21.0 -21.0 14 1 0.00028
168 2 -0.75 -21.0 -21.0 14 1 0.00028
169 1 4.550000000000011 -21.0 -21.0 15 1 0.00028
170 1 6.550000000000011 -21.0 -21.0 15 1 0.00028
171 1 8.550000000000011 -21.0 -21.0 15 1 0.00028
172 1 10.550000000000011 -21.0 -21.0 15 1 0.00028
173 1 12.550000000000011 -21.0 -21.0 15 1 0.00028
174 1 14.550000000000011 -21.0 -21.0 15 1 0.00028
175 2 16.55000000000001 -21.0 -21.0 15 1 0.00028
176 2 18.55000000000001 -21.0 -21.0 15 1 0.00028
177 2 20.55000000000001 -21.0 -21.0 15 1 0.00028
178 2 22.55000000000001 -21.0 -21.0 15 1 0.00028
179 2 24.55000000000001 -21.0 -21.0 15 1 0.00028
180 2 26.55000000000001 -21.0 -21.0 15 1 0.00028
181 1 31.850000000000023 -21.0 -21.0 16 1 0.00028
182 1 33.85000000000002 -21.0 -21.0 16 1 0.00028
183 1 35.85000000000002 -21.0 -21.0 16 1 0.00028
184 1 37.85000000000002 -21.0 -21.0 16 1 0.00028
185 1 39.85000000000002 -21.0 -21.0 16 1 0.00028
186 1 41.85000000000002 -21.0 -21.0 16 1 0.00028
187 2 43.85000000000002 -21.0 -21.0 16 1 0.00028
188 2 45.85000000000002 -21.0 -21.0 16 1 0.00028
189 2 47.85000000000002 -21.0 -21.0 16 1 0.00028
190 2 49.85000000000002 -21.0 -21.0 16 1 0.00028
191 2 51.85000000000002 -21.0 -21.0 16 1 0.00028
192 2 53.85000000000002 -21.0 -21.0 16 1 0.00028
193 1 59.14999999999998 -21.0 -21.0 17 1 0.00028
194 1 61.14999999999998 -21.0 -21.0 17 1 0.00028
195 1 63.14999999999998 -21.0 -21.0 17 1 0.00028
196 1 65.14999999999998 -21.0 -21.0 17 1 0.00028
197 1 67.14999999999998 -21.0 -21.0 17 1 0.00028
198 1 69.14999999999998 -21.0 -21.0 17 1 0.00028
199 2 71.14999999999998 -21.0 -21.0 17 1 0.00028
200 2 73.14999999999998 -21.0 -21.0 17 1 0.00028
201 2 75.14999999999998 -21.0 -21.0 17 1 0.00028
202 2 77.14999999999998 -21.0 -21.0 17 1 0.00028
203 2 79.14999999999998 -21.0 -21.0 17 1 0.00028
204 2 81.14999999999998 -21.0 -21.0 17 1 0.00028
205 1 86.44999999999999 -21.0 -21.0 18 1 0.00028
206 1 88.44999999999999 -21.0 -21.0 18 1 0.00028
207 1 90.44999999999999 -21.0 -21.0 18 1 0.00028
208 1 92.44999999999999 -21.0 -21.0 18 1 0.00028
209 1 94.44999999999999 -21.0 -21.0 18 1 0.00028
210 1 96.44999999999999 -21.0 -21.0 18 1 0.00028
211 2 98.44999999999999 -21.0 -21.0 18 1 0.00028
212 2 100.44999999999999 -21.0 -21.0 18 1 0.00028
213 2 102.44999999999999 -21.0 -21.0 18 1 0.00028
214 2 104.44999999999999 -21.0 -21.0 18 1 0.00028
215 2 106.44999999999999 -21.0 -21.0 18 1 0.00028
216 2 108.44999999999999 -21.0 -21.0 18 1 0.00028
217 1 113.75 -21.0 -21.0 19 1 0.00028
218 1 115.75 -21.0 -21.0 19 1 0.00028
219 1 117.75 -21.0 -21.0 19 1 0.00028
220 1 119.75 -21.0 -21.0 19 1 0.00028
221 1 121.75 -21.0 -21.0 19 1 0.00028
222 1 123.75 -21.0 -21.0 19 1 0.00028
223 2 125.75 -21.0 -21.0 19 1 0.00028
224 2 127.75 -21.0 -21.0 19 1 0.00028
225 2 129.75 -21.0 -21.0 19 1 0.00028
226 2 131.75 -21.0 -21.0 19 1 0.00028
227 2 133.75 -21.0 -21.0 19 1 0.00028
228 2 135.75 -21.0 -21.0 19 1 0.00028
229 1 141.04999999999995 -21.0 -21.0 20 1 0.00028
230 1 143.04999999999995 -21.0 -21.0 20 1 0.00028
231 1 145.04999999999995 -21.0 -21.0 20 1 0.00028
232 1 147.04999999999995 -21.0 -21.0 20 1 0.00028
233 1 149.04999999999995 -21.0 -21.0 20 1 0.00028
234 1 151.04999999999995 -21.0 -21.0 20 1 0.00028
235 2 153.04999999999995 -21.0 -21.0 20 1 0.00028
236 2 155.04999999999995 -21.0 -21.0 20 1 0.00028
237 2 157.04999999999995 -21.0 -21.0 20 1 0.00028
238 2 159.04999999999995 -21.0 -21.0 20 1 0.00028
239 2 161.04999999999995 -21.0 -21.0 20 1 0.00028
240 2 163.04999999999995 -21.0 -21.0 20 1 0.00028
241 1 168.35000000000002 -21.0 -21.0 21 1 0.00028
242 1 170.35000000000002 -21.0 -21.0 21 1 0.00028
243 1 172.35000000000002 -21.0 -21.0 21 1 0.00028
244 1 174.35000000000002 -21.0 -21.0 21 1 0.00028
245 1 176.35000000000002 -21.0 -21.0 21 1 0.00028
246 1 178.35000000000002 -21.0 -21.0 21 1 0.00028
247 2 180.35000000000002 -21.0 -21.0 21 1 0.00028
248 2 182.35000000000002 -21.0 -21.0 21 1 0.00028
249 2 184.35000000000002 -21.0 -21.0 21 1 0.00028
250 2 186.35000000000002 -21.0 -21.0 21 1 0.00028
251 2 188.35000000000002 -21.0 -21.0 21 1 0.00028
252 2 190.35000000000002 -21.0 -21.0 21 1 0.00028
253 1 195.64999999999998 -21.0 -21.0 22 1 0.00028
254 1 197.64999999999998 -21.0 -21.0 22 1 0.00028
255 1 199.64999999999998 -21.0 -21.0 22 1 0.00028
256 1 201.64999999999998 -21.0 -21.0 22 1 0.00028
257 1 203.64999999999998 -21.0 -21.0 22 1 0.00028
258 1 205.64999999999998 -21.0 -21.0 22 1 0.00028
259 2 207.64999999999998 -21.0 -21.0 22 1 0.00028
260 2 209.64999999999998 -21.0 -21.0 22 1 0.00028
261 2 211.64999999999998 -21.0 -21.0 22 1 0.00028
262 2 213.64999999999998 -21.0 -21.0 22 1 0.00028
263 2 215.64999999999998 -21.0 -21.0 22 1 0.00028
264 2 217.64999999999998 -21.0 -21.0 22 1 0.00028
265 1 222.95000000000005 -21.0 -21.0 23 1 0.00028
266 1 224.95000000000005 -21.0 -21.0 23 1 0.00028
267 1 226.95000000000005 -21.0 -21.0 23 1 0.00028
268 1 228.95000000000005 -21.0 -21.0 23 1 0.00028
269 1 230.95000000000005 -21.0 -21.0 23 1 0.00028
270 1 232.95000000000005 -21.0 -21.0 23 1 0.00028
271 2 234.95000000000005 -21.0 -21.0 23 1 0.00028
272 2 236.95000000000005 -21.0 -21.0 23 1 0.00028
273 2 238.95000000000005 -21.0 -21.0 23 1 0.00028
274 2 240.95000000000005 -21.0 -21.0 23 1 0.00028
275 2 242.95000000000005 -21.0 -21.0 23 1 0.00028
276 2 244.95000000000005 -21.0 -21.0 23 1 0.00028
277 1 250.25 -21.0 -21.0 24 1 0.00028
278 1 252.25 -21.0 -21.0 24 1 0.00028
279 1 254.25 -21.0 -21.0 24 1 0.00028
280 1 256.25 -21.0 -21.0 24 1 0.00028
281 1 258.25 -21.0 -21.0 24 1 0.00028
282 1 260.25 -21.0 -21.0 24 1 0.00028
283 2 262.25 -21.0 -21.0 24 1 0.00028
284 2 264.25 -21.0 -21.0 24 1 0.00028
285 2 266.25 -21.0 -21.0 24 1 0.00028
286 2 268.25 -21.0 -21.0 24 1 0.00028
287 2 270.25 -21.0 -21.0 24 1 0.00028
288 2 272.25 -21.0 -21.0 24 1 0.00028
289 1 277.54999999999995 -21.0 -21.0 25 1 0.00028
290 1 279.54999999999995 -21.0 -21.0 25 1 0.00028
291 1 281.54999999999995 -21.0 -21.0 25 1 0.00028
292 1 283.54999999999995 -21.0 -21.0 25 1 0.00028
293 1 285.54999999999995 -21.0 -21.0 25 1 0.00028
294 1 287.54999999999995 -21.0 -21.0 25 1 0.00028
295 2 289.54999999999995 -21.0 -21.0 25 1 0.00028
296 2 291.54999999999995 -21.0 -21.0 25 1 0.00028
297 2 293.54999999999995 -21.0 -21.0 25 1 0.00028
298 2 295.54999999999995 -21.0 -21.0 25 1 0.00028
299 2 297.54999999999995 -21.0 -21.0 25 1 0.00028
300 2 299.54999999999995 -21.0 -21.0 25 1 0.00028
301 1 304.85 -21.0 -21.0 26 1 0.00028
302 1 306.85 -21.0 -21.0 26 1 0.00028
303 1 308.85 -21.0 -21.0 26 1 0.00028
304 1 310.85 -21.0 -21.0 26 1 0.00028
305 1 312.85 -21.0 -21.0 26 1 0.00028
306 1 314.85 -21.0 -21.0 26 1 0.00028
307 2 316.85 -21.0 -21.0 26 1 0.00028
308 2 318.85 -21.0 -21.0 26 1 0.00028
309 2 320.85 -21.0 -21.0 26 1 0.00028
310 2 322.85 -21.0 -21.0 26 1 0.00028
311 2 324.85 -21.0 -21.0 26 1 0.00028
312 2 326.85 -21.0 -21.0 26 1 0.00028
313 1 332.15 -21.0 -21.0 27 1 0.00028
314 1 334.15 -21.0 -21.0 27 1 0.00028
315 1 336.15 -21.0 -21.0 27 1 0.00028
316 1 338.15 -21.0 -21.0 27 1 0.00028
317 1 340.15 -21.0 -21.0 27 1 0.00028
318 1 342.15 -21.0 -21.0 27 1 0.00028
319 2 344.15 -21.0 -21.0 27 1 0.00028
320 2 346.15 -21.0 -21.0 27 1 0.00028
321 2 348.15 -21.0 -21.0 27 1 0.00028
322 2 350.15 -21.0 -21.0 27 1 0.00028
323 2 352.15 -21.0 -21.0 27 1 0.00028
324 2 354.15 -21.0 -21.0 27 1 0.00028
325 1 359.45000000000005 -21.0 -21.0 28 1 0.00028
326 1 361.45000000000005 -21.0 -21.0 28 1 0.00028
327 1 363.45000000000005 -21.0 -21.0 28 1 0.00028
328 1 365.45000000000005 -21.0 -21.0 28 1 0.00028
329 1 367.45000000000005 -21.0 -21.0 28 1 0.00028
330 1 369.45000000000005 -21.0 -21.0 28 1 0.00028
331 2 371.45000000000005 -21.0 -21.0 28 1 0.00028
332 2 373.45000000000005 -21.0 -21.0 28 1 0.00028
333 2 375.45000000000005 -21.0 -21.0 28 1 0.00028
334 2 377.45000000000005 -21.0 -21.0 28 1 0.00028
335 2 379.45000000000005 -21.0 -21.0 28 1 0.00028
336 2 381.45000000000005 -21.0 -21.0 28 1 0.00028
337 1 -377.65 -15.0 -21.0 29 1 0.00028
338 1 -375.65 -15.0 -21.0 29 1 0.00028
339 1 -373.65 -15.0 -21.0 29 1 0.00028
340 1 -371.65 -15.0 -21.0 29 1 0.00028
341 1 -369.65 -15.0 -21.0 29 1 0.00028
342 1 -367.65 -15.0 -21.0 29 1 0.00028
343 2 -365.65 -15.0 -21.0 29 1 0.00028
344 2 -363.65 -15.0 -21.0 29 1 0.00028
345 2 -361.65 -15.0 -21.0 29 1 0.00028
346 2 -359.65 -15.0 -21.0 29 1 0.00028
347 2 -357.65 -15.0 -21.0 29 1 0.00028
348 2 -355.65 -15.0 -21.0 29 1 0.00028
349 1 -350.34999999999997 -15.0 -21.0 30 1 0.00028
350 1 -348.34999999999997 -15.0 -21.0 30 1 0.00028
351 1 -346.34999999999997 -15.0 -21.0 30 1 0.00028
352 1 -344.34999999999997 -15.0 -21.0 30 1 0.00028
353 1 -342.34999999999997 -15.0 -21.0 30 1 0.00028
354 1 -340.34999999999997 -15.0 -21.0 30 1 0.00028
355 2 -338.34999999999997 -15.0 -21.0 30 1 0.00028
356 2 -336.34999999999997 -15.0 -21.0 30 1 0.00028
357 2 -334.34999999999997 -15.0 -21.0 30 1 0.00028
358 2 -332.34999999999997 -15.0 -21.0 30 1 0.00028
359 2 -330.34999999999997 -15.0 -21.0 30 1 0.00028
360 2 -328.34999999999997 -15.0 -21.0 30 1 0.00028
361 1 -323.04999999999995 -15.0 -21.0 31 1 0.00028
362 1 -321.04999999999995 -15.0 -21.0 31 1 0.00028
363 1 -319.04999999999995 -15.0 -21.0 31 1 0.00028
364 1 -317.04999999999995 -15.0 -21.0 31 1 0.00028
365 1 -315.04999999999995 -15.0 -21.0 31 1 0.00028
366 1 -313.04999999999995 -15.0 -21.0 31 1 0.00028
367 2 -311.04999999999995 -15.0 -21.0 31 1 0.00028
368 2 -309.04999999999995 -15.0 -21.0 31 1 0.00028
369 2 -307.04999999999995 -15.0 -21.0 31 1 0.00028
370 2 -305.04999999999995 -15.0 -21.0 31 1 0.00028
371 2 -303.04999999999995 -15.0 -21.0 31 1 0.00028
372 2 -301.04999999999995 -15.0 -21.0 31 1 0.00028
373 1 -295.75 -15.0 -21.0 32 1 0.00028
374 1 -293.75 -15.0 -21.0 32 1 0.00028
375 1 -291.75 -15.0 -21.0 32 1 0.00028
376 1 -289.75 -15.0 -21.0 32 1 0.00028
377 1 -287.75 -15.0 -21.0 32 1 0.00028
378 1 -285.75 -15.0 -21.0 32 1 0.00028
379 2 -283.75 -15.0 -21.0 32 1 0.00028
380 2 -281.75 -15.0 -21.0 32 1 0.00028
381 2 -279.75 -15.0 -21.0 32 1 0.00028
382 2 -277.75 -15.0 -21.0 32 1 0.00028
383 2 -275.75 -15.0 -21.0 32 1 0.00028
384 2 -273.75 -15.0 -21.0 32 1 0.00028
385 1 -268.45 -15.0 -21.0 33 1 0.00028
386 1 -266.45 -15.0 -21.0 33 1 0.00028
387 1 -264.45 -15.0 -21.0 33 1 0.00028
388 1 -262.45 -15.0 -21.0 33 1 0.00028
389 1 -260.45 -15.0 -21.0 33 1 0.00028
390 1 -258.45 -15.0 -21.0 33 1 0.00028
391 2 -256.45 -15.0 -21.0 33 1 0.00028
392 2 -254.45 -15.0 -21.0 33 1 0.00028
393 2 -252.45 -15.0 -21.0 33 1 0.00028
394 2 -250.45 -15.0 -21.0 33 1 0.00028
395 2 -248.45 -15.0 -21.0 33 1 0.00028
396 2 -246.45 -15.0 -21.0 33 1 0.00028
397 1 -241.14999999999998 -15.0 -21.0 34 1 0.00028
398 1 -239.14999999999998 -15.0 -21.0 34 1 0.00028
399 1 -237.14999999999998 -15.0 -21.0 34 1 0.00028
400 1 -235.14999999999998 -15.0 -21.0 34 1 0.00028
401 1 -233.14999999999998 -15.0 -21.0 34 1 0.00028
402 1 -231.14999999999998 -15.0 -21.0 34 1 0.00028
403 2 -229.14999999999998 -15.0 -21.0 34 1 0.00028
404 2 -227.14999999999998 -15.0 -21.0 34 1 0.00028
405 2 -225.14999999999998 -15.0 -21.0 34 1 0.00028
406 2 -223.14999999999998 -15.0 -21.0 34 1 0.00028
407 2 -221.14999999999998 -15.0 -21.0 34 1 0.00028
408 2 -219.14999999999998 -15.0 -21.0 34 1 0.00028
409 1 -213.85 -15.0 -21.0 35 1 0.00028
410 1 -211.85 -15.0 -21.0 35 1 0.00028
411 1 -209.85 -15.0 -21.0 35 1 0.00028
412 1 -207.85 -15.0 -21.0 35 1 0.00028
413 1 -205.85 -15.0 -21.0 35 1 0.00028
414 1 -203.85 -15.0 -21.0 35 1 0.00028
415 2 -201.85 -15.0 -21.0 35 1 0.00028
416 2 -199.85 -15.0 -21.0 35 1 0.00028
417 2 -197.85 -15.0 -21.0 35 1 0.00028
418 2 -195.85 -15.0 -21.0 35 1 0.00028
419 2 -193.85 -15.0 -21.0 35 1 0.00028
420 2 -191.85 -15.0 -21.0 35 1 0.00028
421 1 -186.54999999999998 -15.0 -21.0 36 1 0.00028
422 1 -184.54999999999998 -15.0 -21.0 36 1 0.00028
423 1 -182.54999999999998 -15.0 -21.0 36 1 0.00028
424 1 -180.54999999999998 -15.0 -21.0 36 1 0.00028
425 1 -178.54999999999998 -15.0 -21.0 36 1 0.00028
426 1 -176.54999999999998 -15.0 -21.0 36 1 0.00028
427 2 -174.54999999999998 -15.0 -21.0 36 1 0.00028
428 2 -172.54999999999998 -15.0 -21.0 36 1 0.00028
429 2 -170.54999999999998 -15.0 -21.0 36 1 0.00028
430 2 -168.54999999999998 -15.0 -21.0 36 1 0.00028
431 2 -166.54999999999998 -15.0 -21.0 36 1 0.00028
432 2 -164.54999999999998 -15.0 -21.0 36 1 0.00028
433 1 -159.25 -15.0 -21.0 37 1 0.00028
434 1 -157.25 -15.0 -21.0 37 1 0.00028
435 1 -155.25 -15.0 -21.0 37 1 0.00028
436 1 -153.25 -15.0 -21.0 37 1 0.00028
437 1 -151.25 -15.0 -21.0 37 1 0.00028
438 1 -149.25 -15.0 -21.0 37 1 0.00028
439 2 -147.25 -15.0 -21.0 37 1 0.00028
440 2 -145.25 -15.0 -21.0 37 1 0.00028
441 2 -143.25 -15.0 -21.0 37 1 0.00028
442 2 -141.25 -15.0 -21.0 37 1 0.00028
443 2 -139.25 -15.0 -21.0 37 1 0.00028
444 2 -137.25 -15.0 -21.0 37 1 0.00028
445 1 -131.95 -15.0 -21.0 38 1 0.00028
446 1 -129.95 -15.0 -21.0 38 1 0.00028
447 1 -127.94999999999999 -15.0 -21.0 38 1 0.00028
448 1 -125.94999999999999 -15.0 -21.0 38 1 0.00028
449 1 -123.94999999999999 -15.0 -21.0 38 1 0.00028
450 1 -121.94999999999999 -15.0 -21.0 38 1 0.00028
451 2 -119.94999999999999 -15.0 -21.0 38 1 0.00028
452 2 -117.94999999999999 -15.0 -21.0 38 1 0.00028
453 2 -115.94999999999999 -15.0 -21.0 38 1 0.00028
454 2 -113.94999999999999 -15.0 -21.0 38 1 0.00028
455 2 -111.94999999999999 -15.0 -21.0 38 1 0.00028
456 2 -109.94999999999999 -15.0 -21.0 38 1 0.00028
457 1 -104.64999999999998 -15.0 -21.0 39 1 0.00028
458 1 -102.64999999999998 -15.0 -21.0 39 1 0.00028
459 1 -100.64999999999998 -15.0 -21.0 39 1 0.00028
460 1 -98.64999999999998 -15.0 -21.0 39 1 0.00028
461 1 -96.64999999999998 -15.0 -21.0 39 1 0.00028
462 1 -94.64999999999998 -15.0 -21.0 39 1 0.00028
463 2 -92.64999999999998 -15.0 -21.0 39 1 0.00028
464 2 -90.64999999999998 -15.0 -21.0 39 1 0.00028
465 2 -88.64999999999998 -15.0 -21.0 39 1 0.00028
466 2 -86.64999999999998 -15.0 -21.0 39 1 0.00028
467 2 -84.64999999999998 -15.0 -21.0 39 1 0.00028
468 2 -82.64999999999998 -15.0 -21.0 39 1 0.00028
469 1 -77.34999999999997 -15.0 -21.0 40 1 0.00028
470 1 -75.34999999999997 -15.0 -21.0 40 1 0.00028
471 1 -73.34999999999997 -15.0 -21.0 40 1 0.00028
472 1 -71.34999999999997 -15.0 -21.0 40 1 0.00028
473 1 -69.34999999999997 -15.0 -21.0 40 1 0.00028
474 1 -67.34999999999997 -15.0 -21.0 40 1 0.00028
475 2 -65.34999999999997 -15.0 -21.0 40 1 0.00028
476 2 -63.349999999999966 -15.0 -21.0 40 1 0.00028
477 2 -61.349999999999966 -15.0 -21.0 40 1 0.00028
478 2 -59.349999999999966 -15.0 -21.0 40 1 0.00028
479 2 -57.349999999999966 -15.0 -21.0 40 1 0.00028
480 2 -55.349999999999966 -15.0 -21.0 40 1 0.00028
481 1 -50.05000000000001 -15.0 -21.0 41 1 0.00028
482 1 -48.05000000000001 -15.0 -21.0 41 1 0.00028
483 1 -46.05000000000001 -15.0 -21.0 41 1 0.00028
484 1 -44.05000000000001 -15.0 -21.0 41 1 0.00028
485 1 -42.05000000000001 -15.0 -21.0 41 1 0.00028
486 1 -40.05000000000001 -15.0 -21.0 41 1 0.00028
487 2 -38.05000000000001 -15.0 -21.0 41 1 0.00028
488 2 -36.05000000000001 -15.0 -21.0 41 1 0.00028
489 2 -34.05000000000001 -15.0 -21.0 41 1 0.00028
490 2 -32.05000000000001 -15.0 -21.0 41 1 0.00028
491 2 -30.05000000000001 -15.0 -21.0 41 1 0.00028
492 2 -28.05000000000001 -15.0 -21.0 41 1 0.00028
493 1 -22.75 -15.0 -21.0 42 1 0.00028
494 1 -20.75 -15.0 -21.0 42 1 0.00028
495 1 -18.75 -15.0 -21.0 42 1 0.00028
496 1 -16.75 -15.0 -21.0 42 1 0.00028
497 1 -14.75 -15.0 -21.0 42 1 0.00028
498 1 -12.75 -15.0 -21.0 42 1 0.00028
499 2 -10.75 -15.0 -21.0 42 1 0.00028
500 2 -8.75 -15.0 -21.0 42 1 0.00028
501 2 -6.75 -15.0 -21.0 42 1 0.00028
502 2 -4.75 -15.0 -21.0 42 1 0.00028
503 2 -2.75 -15.0 -21.0 42 1 0.00028
504 2 -0.75 -15.0 -21.0 42 1 0.00028
505 1 4.550000000000011 -15.0 -21.0 43 1 0.00028
506 1 6.550000000000011 -15.0 -21.0 43 1 0.00028
507 1 8.550000000000011 -15.0 -21.0 43 1 0.00028
508 1 10.550000000000011 -15.0 -21.0 43 1 0.00028
509 1 12.550000000000011 -15.0 -21.0 43 1 0.00028
510 1 14.550000000000011 -15.0 -21.0 43 1 0.00028
511 2 16.55000000000001 -15.0 -21.0 43 1 0.00028
512 2 18.55000000000001 -15.0 -21.0 43 1 0.00028
513 2 20.55000000000001 -15.0 -21.0 43 1 0.00028
514 2 22.55000000000001 -15.0 -21.0 43 1 0.00028
515 2 24.55000000000001 -15.0 -21.0 43 1 0.00028
516 2 26.55000000000001 -15.0 -21.0 43 1 0.00028
517 1 31.850000000000023 -15.0 -21.0 44 1 0.00028
518 1 33.85000000000002 -15.0 -21.0 44 1 0.00028
519 1 35.85000000000002 -15.0 -21.0 44 1 0.00028
520 1 37.85000000000002 -15.0 -21.0 44 1 0.00028
521 1 39.85000000000002 -15.0 -21.0 44 1 0.00028
522 1 41.85000000000002 -15.0 -21.0 44 1 0.00028
523 2 43.85000000000002 -15.0 -21.0 44 1 0.00028
524 2 45.85000000000002 -15.0 -21.0 44 1 0.00028
525 2 47.85000000000002 -15.0 -21.0 44 1 0.00028
526 2 49.85000000000002 -15.0 -21.0 44 1 0.00028
527 2 51.85000000000002 -15.0 -21.0 44 1 0.00028
528 2 53.85000000000002 -15.0 -21.0 44 1 0.00028
529 1 59.14999999999998 -15.0 -21.0 45 1 0.00028
530 1 61.14999999999998 -15.0 -21.0 45 1 0.00028
531 1 63.14999999999998 -15.0 -21.0 45 1 0.00028
532 1 65.14999999999998 -15.0 -21.0 45 1 0.00028
533 1 67.14999999999998 -15.0 -21.0 45 1 0.00028
534 1 69.14999999999998 -15.0 -21.0 45 1 0.00028
535 2 71.14999999999998 -15.0 -21.0 45 1 0.00028
536 2 73.14999999999998 -15.0 -21.0 45 1 0.00028
537 2 75.14999999999998 -15.0 -21.0 45 1 0.00028
538 2 77.14999999999998 -15.0 -21.0 45 1 0.00028
539 2 79.14999999999998 -15.0 -21.0 45 1 0.00028
540 2 81.14999999999998 -15.0 -21.0 45 1 0.00028
541 1 86.44999999999999 -15.0 -21.0 46 1 0.00028
542 1 88.44999999999999 -15.0 -21.0 46 1 0.00028
543 1 90.44999999999999 -15.0 -21.0 46 1 0.00028
544 1 92.44999999999999 -15.0 -21.0 46 1 0.00028
545 1 94.44999999999999 -15.0 -21.0 46 1 0.00028
546 1 96.44999999999999 -15.0 -21.0 46 1 0.00028
547 2 98.44999999999999 -15.0 -21.0 46 1 0.00028
548 2 100.44999999999999 -15.0 -21.0 46 1 0.00028
549 2 102.44999999999999 -15.0 -21.0 46 1 0.00028
550 2 104.44999999999999 -15.0 -21.0 46 1 0.00028
551 2 106.44999999999999 -15.0 -21.0 46 1 0.00028
552 2 108.44999999999999 -15.0 -21.0 46 1 0.00028
553 1 113.75 -15.0 -21.0 47 1 0.00028
554 1 115.75 -15.0 -21.0 47 1 0.00028
555 1 117.75 -15.0 -21.0 47 1 0.00028
556 1 119.75 -15.0 -21.0 47 1 0.00028
557 1 121.75 -15.0 -21.0 47 1 0.00028
558 1 123.75 -15.0 -21.0 47 1 0.00028
559 2 125.75 -15.0 -21.0 47 1 0.00028
560 2 127.75 -15.0 -21.0 47 1 0.00028
561 2 129.75 -15.0 -21.0 47 1 0.00028
562 2 131.75 -15.0 -21.0 47 1 0.00028
563 2 133.75 -15.0 -21.0 47 1 0.00028
564 2 135.75 -15.0 -21.0 47 1 0.00028
565 1 141.04999999999995 -15.0 -21.0 48 1 0.00028
566 1 143.04999999999995 -15.0 -21.0 48 1 0.00028
567 1 145.04999999999995 -15.0 -21.0 48 1 0.00028
568 1 147.04999999999995 -15.0 -21.0 48 1 0.00028
569 1 149.04999999999995 -15.0 -21.0 48 1 0.00028
570 1 151.04999999999995 -15.0 -21.0 48 1 0.00028
571 2 153.04999999999995 -15.0 -21.0 48 1 0.00028
572 2 155.04999999999995 -15.0 -21.0 48 1 0.00028
573 2 157.04999999999995 -15.0 -21.0 48 1 0.00028
574 2 159.04999999999995 -15.0 -21.0 48 1 0.00028
575 2 161.04999999999995 -15.0 -21.0 48 1 0.00028
576 2 163.04999999999995 -15.0 -21.0 48 1 0.00028
577 1 168.35000000000002 -15.0 -21.0 49 1 0.00028
578 1 170.35000000000002 -15.0 -21.0 49 1 0.00028
579 1 172.35000000000002 -15.0 -21.0 49 1 0.00028
580 1 174.35000000000002 -15.0 -21.0 49 1 0.00028
581 1 176.35000000000002 -15.0 -21.0 49 1 0.00028
582 1 178.35000000000002 -15.0 -21.0 49 1 0.00028
583 2 180.35000000000002 -15.0 -21.0 49 1 0.00028
584 2 182.35000000000002 -15.0 -21.0 49 1 0.00028
585 2 184.35000000000002 -15.0 -21.0 49 1 0.00028
586 2 186.35000000000002 -15.0 -21.0 49 1 0.00028
587 2 188.35000000000002 -15.0 -21.0 49 1 0.00028
588 2 190.35000000000002 -15.0 -21.0 49 1 0.00028
589 1 195.64999999999998 -15.0 -21.0 50 1 0.00028
590 1 197.64999999999998 -15.0 -21.0 50 1 0.00028
591 1 199.64999999999998 -15.0 -21.0 50 1 0.00028
592 1 201.64999999999998 -15.0 -21.0 50 1 0.00028
593 1 203.64999999999998 -15.0 -21.0 50 1 0.00028
594 1 205.64999999999998 -15.0 -21.0 50 1 0.00028
595 2 207.64999999999998 -15.0 -21.0 50 1 0.00028
596 2 209.64999999999998 -15.0 -21.0 50 1 0.00028
597 2 211.64999999999998 -15.0 -21.0 50 1 0.00028
598 2 213.64999999999998 -15.0 -21.0 50 1 0.00028
599 2 215.64999999999998 -15.0 -21.0 50 1 0.00028
600 2 217.64999999999998 -15.0 -21.0 50 1 0.00028
601 1 222.95000000000005 -15.0 -21.0 51 1 0.00028
602 1 224.95000000000005 -15.0 -21.0 51 1 0.00028
603 1 226.95000000000005 -15.0 -21.0 51 1 0.00028
604 1 228.95000000000005 -15.0 -21.0 51 1 0.00028
605 1 230.95000000000005 -15.0 -21.0 51 1 0.00028
606 1 232.95000000000005 -15.0 -21.0 51 1 0.00028
607 2 234.95000000000005 -15.0 -21.0 51 1 0.00028
608 2 236.95000000000005 -15.0 -21.0 51 1 0.00028
609 2 238.95000000000005 -15.0 -21.0 51 1 0.00028
610 2 240.95000000000005 -15.0 -21.0 51 1 0.00028
611 2 242.95000000000005 -15.0 -21.0 51 1 0.00028
612 2 244.95000000000005 -15.0 -21.0 51 1 0.00028
613 1 250.25 -15.0 -21.0 52 1 0.00028
614 1 252.25 -15.0 -21.0 52 1 0.00028
615 1 254.25 -15.0 -21.0 52 1 0.00028
616 1 256.25 -15.0 -21.0 52 1 0.00028
617 1 258.25 -15.0 -21.0 52 1 0.00028
618 1 260.25 -15.0 -21.0 52 1 0.00028
619 2 262.25 -15.0 -21.0 52 1 0.00028
620 2 264.25 -15.0 -21.0 52 1 0.00028
621 2 266.25 -15.0 -21.0 52 1 0.00028
622 2 268.25 -15.0 -21.0 52 1 0.00028
623 2 270.25 -15.0 -21.0 52 1 0.00028
624 2 272.25 -15.0 -21.0 52 1 0.00028
625 1 277.54999999999995 -15.0 -21.0 53 1 0.00028
626 1 279.54999999999995 -15.0 -21.0 53 1 0.00028
627 1 281.54999999999995 -15.0 -21.0 53 1 0.00028
628 1 283.54999999999995 -15.0 -21.0 53 1 0.00028
629 1 285.54999999999995 -15.0 -21.0 53 1 0.00028
630 1 287.54999999999995 -15.0 -21.0 53 1 0.00028
631 2 289.54999999999995 -15.0 -21.0 53 1 0.00028
632 2 291.54999999999995 -15.0 -21.0 53 1 0.00028
633 2 293.54999999999995 -15.0 -21.0 53 1 0.00028
634 2 295.54999999999995 -15.0 -21.0 53 1 0.00028
635 2 297.54999999999995 -15.0 -21.0 53 1 0.00028
636 2 299.54999999999995 -15.0 -21.0 53 1 0.00028
637 1 304.85 -15.0 -21.0 54 1 0.00028
638 1 306.85 -15.0 -21.0 54 1 0.00028
639 1 308.85 -15.0 -21.0 54 1 0.00028
640 1 310.85 -15.0 -21.0 54 1 0.00028
641 1 312.85 -15.0 -21.0 54 1 0.00028
642 1 314.85 -15.0 -21.0 54 1 0.00028
643 2 316.85 -15.0 -21.0 54 1 0.00028
644 2 318.85 -15.0 -21.0 54 1 0.00028
645 2 320.85 -15.0 -21.0 54 1 0.00028
646 2 322.85 -15.0 -21.0 54 1 0.00028
647 2 324.85 -15.0 -21.0 54 1 0.00028
648 2 326.85 -15.0 -21.0 54 1 0.00028
649 1 332.15 -15.0 -21.0 55 1 0.00028
650 1 334.15 -15.0 -21.0 55 1 0.00028
651 1 336.15 -15.0 -21.0 55 1 0.00028
652 1 338.15 -15.0 -21.0 55 1 0.00028
653 1 340.15 -15.0 -21.0 55 1 0.00028